# vtk DataFile Version 3.0
vtk output
ASCII
DATASET POLYDATA
POINTS 2401 float
0.000000 0.000000 0.000000 
0.990025 0.000000 0.000000 
0.981555 0.129224 0.000000 
0.956291 0.256237 0.000000 
0.914664 0.378866 0.000000 
0.857387 0.495012 0.000000 
0.785440 0.602689 0.000000 
0.700053 0.700053 0.000000 
0.602689 0.785440 0.000000 
0.495013 0.857387 0.000000 
0.378866 0.914664 0.000000 
0.256237 0.956291 0.000000 
0.129224 0.981555 0.000000 
0.000000 0.990025 0.000000 
-0.129224 0.981555 0.000000 
-0.256237 0.956291 0.000000 
-0.378866 0.914664 0.000000 
-0.495012 0.857387 0.000000 
-0.602689 0.785440 0.000000 
-0.700053 0.700053 0.000000 
-0.785440 0.602689 0.000000 
-0.857387 0.495012 0.000000 
-0.914664 0.378866 0.000000 
-0.956291 0.256237 0.000000 
-0.981555 0.129224 0.000000 
-0.990025 0.000000 0.000000 
-0.981555 -0.129224 0.000000 
-0.956291 -0.256237 0.000000 
-0.914664 -0.378866 0.000000 
-0.857387 -0.495012 0.000000 
-0.785440 -0.602689 0.000000 
-0.700053 -0.700053 0.000000 
-0.602689 -0.785440 0.000000 
-0.495013 -0.857387 0.000000 
-0.378866 -0.914664 0.000000 
-0.256237 -0.956291 0.000000 
-0.129224 -0.981555 0.000000 
-0.000000 -0.990025 0.000000 
0.129224 -0.981555 0.000000 
0.256237 -0.956291 0.000000 
0.378866 -0.914664 0.000000 
0.495013 -0.857387 0.000000 
0.602689 -0.785440 0.000000 
0.700053 -0.700053 0.000000 
0.785440 -0.602689 0.000000 
0.857387 -0.495013 0.000000 
0.914664 -0.378866 0.000000 
0.956291 -0.256237 0.000000 
0.981555 -0.129224 0.000000 
0.950625 0.000000 0.000000 
0.942492 0.124081 0.000000 
0.918233 0.246040 0.000000 
0.878263 0.363788 0.000000 
0.823265 0.475312 0.000000 
0.754182 0.578704 0.000000 
0.672193 0.672193 0.000000 
0.578704 0.754182 0.000000 
0.475313 0.823265 0.000000 
0.363788 0.878263 0.000000 
0.246040 0.918233 0.000000 
0.124081 0.942492 0.000000 
0.000000 0.950625 0.000000 
-0.124081 0.942492 0.000000 
-0.246040 0.918233 0.000000 
-0.363788 0.878263 0.000000 
-0.475312 0.823265 0.000000 
-0.578704 0.754182 0.000000 
-0.672193 0.672193 0.000000 
-0.754182 0.578704 0.000000 
-0.823265 0.475312 0.000000 
-0.878263 0.363788 0.000000 
-0.918233 0.246040 0.000000 
-0.942492 0.124081 0.000000 
-0.950625 0.000000 0.000000 
-0.942492 -0.124081 0.000000 
-0.918233 -0.246040 0.000000 
-0.878263 -0.363788 0.000000 
-0.823265 -0.475312 0.000000 
-0.754182 -0.578704 0.000000 
-0.672193 -0.672193 0.000000 
-0.578704 -0.754182 0.000000 
-0.475313 -0.823265 0.000000 
-0.363788 -0.878263 0.000000 
-0.246040 -0.918233 0.000000 
-0.124081 -0.942492 0.000000 
-0.000000 -0.950625 0.000000 
0.124081 -0.942492 0.000000 
0.246040 -0.918233 0.000000 
0.363788 -0.878263 0.000000 
0.475313 -0.823265 0.000000 
0.578704 -0.754182 0.000000 
0.672193 -0.672193 0.000000 
0.754182 -0.578704 0.000000 
0.823265 -0.475313 0.000000 
0.878263 -0.363788 0.000000 
0.918233 -0.246040 0.000000 
0.942492 -0.124081 0.000000 
0.912025 0.000000 0.000000 
0.904222 0.119043 0.000000 
0.880949 0.236049 0.000000 
0.842601 0.349017 0.000000 
0.789837 0.456012 0.000000 
0.723558 0.555206 0.000000 
0.644899 0.644899 0.000000 
0.555206 0.723558 0.000000 
0.456013 0.789837 0.000000 
0.349017 0.842601 0.000000 
0.236049 0.880949 0.000000 
0.119043 0.904222 0.000000 
0.000000 0.912025 0.000000 
-0.119043 0.904222 0.000000 
-0.236049 0.880949 0.000000 
-0.349017 0.842601 0.000000 
-0.456012 0.789837 0.000000 
-0.555206 0.723558 0.000000 
-0.644899 0.644899 0.000000 
-0.723558 0.555206 0.000000 
-0.789837 0.456012 0.000000 
-0.842601 0.349017 0.000000 
-0.880949 0.236049 0.000000 
-0.904222 0.119043 0.000000 
-0.912025 0.000000 0.000000 
-0.904222 -0.119043 0.000000 
-0.880949 -0.236049 0.000000 
-0.842601 -0.349017 0.000000 
-0.789837 -0.456012 0.000000 
-0.723558 -0.555206 0.000000 
-0.644899 -0.644899 0.000000 
-0.555206 -0.723558 0.000000 
-0.456013 -0.789837 0.000000 
-0.349017 -0.842601 0.000000 
-0.236049 -0.880949 0.000000 
-0.119043 -0.904222 0.000000 
-0.000000 -0.912025 0.000000 
0.119043 -0.904222 0.000000 
0.236049 -0.880949 0.000000 
0.349017 -0.842601 0.000000 
0.456013 -0.789837 0.000000 
0.555206 -0.723558 0.000000 
0.644899 -0.644899 0.000000 
0.723558 -0.555206 0.000000 
0.789837 -0.456013 0.000000 
0.842601 -0.349017 0.000000 
0.880949 -0.236049 0.000000 
0.904222 -0.119043 0.000000 
0.874225 0.000000 0.000000 
0.866746 0.114109 0.000000 
0.844437 0.226266 0.000000 
0.807679 0.334551 0.000000 
0.757101 0.437113 0.000000 
0.693569 0.532194 0.000000 
0.618170 0.618170 0.000000 
0.532194 0.693569 0.000000 
0.437113 0.757101 0.000000 
0.334551 0.807679 0.000000 
0.226266 0.844437 0.000000 
0.114109 0.866746 0.000000 
0.000000 0.874225 0.000000 
-0.114109 0.866746 0.000000 
-0.226266 0.844437 0.000000 
-0.334551 0.807679 0.000000 
-0.437112 0.757101 0.000000 
-0.532194 0.693569 0.000000 
-0.618170 0.618170 0.000000 
-0.693569 0.532194 0.000000 
-0.757101 0.437113 0.000000 
-0.807679 0.334551 0.000000 
-0.844437 0.226266 0.000000 
-0.866746 0.114109 0.000000 
-0.874225 0.000000 0.000000 
-0.866746 -0.114109 0.000000 
-0.844437 -0.226266 0.000000 
-0.807679 -0.334551 0.000000 
-0.757101 -0.437112 0.000000 
-0.693569 -0.532194 0.000000 
-0.618170 -0.618170 0.000000 
-0.532194 -0.693569 0.000000 
-0.437113 -0.757101 0.000000 
-0.334551 -0.807679 0.000000 
-0.226266 -0.844437 0.000000 
-0.114109 -0.866746 0.000000 
-0.000000 -0.874225 0.000000 
0.114109 -0.866746 0.000000 
0.226266 -0.844437 0.000000 
0.334551 -0.807679 0.000000 
0.437113 -0.757101 0.000000 
0.532194 -0.693569 0.000000 
0.618170 -0.618170 0.000000 
0.693569 -0.532194 0.000000 
0.757101 -0.437113 0.000000 
0.807679 -0.334551 0.000000 
0.844437 -0.226266 0.000000 
0.866746 -0.114109 0.000000 
0.837225 0.000000 0.000000 
0.830062 0.109280 0.000000 
0.808697 0.216690 0.000000 
0.773495 0.320392 0.000000 
0.725058 0.418613 0.000000 
0.664215 0.509670 0.000000 
0.592007 0.592007 0.000000 
0.509670 0.664215 0.000000 
0.418613 0.725058 0.000000 
0.320392 0.773495 0.000000 
0.216690 0.808697 0.000000 
0.109280 0.830062 0.000000 
0.000000 0.837225 0.000000 
-0.109280 0.830062 0.000000 
-0.216690 0.808697 0.000000 
-0.320392 0.773495 0.000000 
-0.418612 0.725058 0.000000 
-0.509670 0.664215 0.000000 
-0.592007 0.592007 0.000000 
-0.664215 0.509670 0.000000 
-0.725058 0.418613 0.000000 
-0.773495 0.320392 0.000000 
-0.808697 0.216690 0.000000 
-0.830062 0.109280 0.000000 
-0.837225 0.000000 0.000000 
-0.830062 -0.109280 0.000000 
-0.808697 -0.216690 0.000000 
-0.773495 -0.320392 0.000000 
-0.725058 -0.418612 0.000000 
-0.664215 -0.509670 0.000000 
-0.592007 -0.592007 0.000000 
-0.509670 -0.664215 0.000000 
-0.418613 -0.725058 0.000000 
-0.320392 -0.773495 0.000000 
-0.216690 -0.808697 0.000000 
-0.109280 -0.830062 0.000000 
-0.000000 -0.837225 0.000000 
0.109280 -0.830062 0.000000 
0.216690 -0.808697 0.000000 
0.320392 -0.773495 0.000000 
0.418613 -0.725058 0.000000 
0.509670 -0.664215 0.000000 
0.592007 -0.592007 0.000000 
0.664215 -0.509670 0.000000 
0.725058 -0.418613 0.000000 
0.773495 -0.320392 0.000000 
0.808697 -0.216690 0.000000 
0.830062 -0.109280 0.000000 
0.801025 0.000000 0.000000 
0.794172 0.104555 0.000000 
0.773731 0.207321 0.000000 
0.740051 0.306539 0.000000 
0.693708 0.400512 0.000000 
0.635496 0.487633 0.000000 
0.566410 0.566410 0.000000 
0.487633 0.635496 0.000000 
0.400513 0.693708 0.000000 
0.306539 0.740051 0.000000 
0.207321 0.773731 0.000000 
0.104555 0.794172 0.000000 
0.000000 0.801025 0.000000 
-0.104555 0.794172 0.000000 
-0.207321 0.773731 0.000000 
-0.306539 0.740051 0.000000 
-0.400512 0.693708 0.000000 
-0.487633 0.635496 0.000000 
-0.566410 0.566410 0.000000 
-0.635496 0.487633 0.000000 
-0.693708 0.400512 0.000000 
-0.740051 0.306539 0.000000 
-0.773731 0.207321 0.000000 
-0.794172 0.104555 0.000000 
-0.801025 0.000000 0.000000 
-0.794172 -0.104555 0.000000 
-0.773731 -0.207321 0.000000 
-0.740051 -0.306539 0.000000 
-0.693708 -0.400512 0.000000 
-0.635496 -0.487633 0.000000 
-0.566410 -0.566410 0.000000 
-0.487633 -0.635496 0.000000 
-0.400513 -0.693708 0.000000 
-0.306539 -0.740051 0.000000 
-0.207321 -0.773731 0.000000 
-0.104555 -0.794172 0.000000 
-0.000000 -0.801025 0.000000 
0.104555 -0.794172 0.000000 
0.207321 -0.773731 0.000000 
0.306539 -0.740051 0.000000 
0.400513 -0.693708 0.000000 
0.487633 -0.635496 0.000000 
0.566410 -0.566410 0.000000 
0.635496 -0.487633 0.000000 
0.693708 -0.400513 0.000000 
0.740051 -0.306539 0.000000 
0.773731 -0.207321 0.000000 
0.794172 -0.104555 0.000000 
0.765625 0.000000 0.000000 
0.759075 0.099934 0.000000 
0.739537 0.198158 0.000000 
0.707345 0.292992 0.000000 
0.663051 0.382812 0.000000 
0.607411 0.466083 0.000000 
0.541379 0.541379 0.000000 
0.466083 0.607411 0.000000 
0.382813 0.663051 0.000000 
0.292992 0.707345 0.000000 
0.198158 0.739537 0.000000 
0.099934 0.759075 0.000000 
0.000000 0.765625 0.000000 
-0.099934 0.759075 0.000000 
-0.198158 0.739537 0.000000 
-0.292992 0.707345 0.000000 
-0.382812 0.663051 0.000000 
-0.466083 0.607411 0.000000 
-0.541379 0.541379 0.000000 
-0.607411 0.466083 0.000000 
-0.663051 0.382812 0.000000 
-0.707345 0.292992 0.000000 
-0.739537 0.198158 0.000000 
-0.759075 0.099934 0.000000 
-0.765625 0.000000 0.000000 
-0.759075 -0.099934 0.000000 
-0.739537 -0.198158 0.000000 
-0.707345 -0.292992 0.000000 
-0.663051 -0.382812 0.000000 
-0.607411 -0.466083 0.000000 
-0.541379 -0.541379 0.000000 
-0.466083 -0.607411 0.000000 
-0.382813 -0.663051 0.000000 
-0.292992 -0.707345 0.000000 
-0.198158 -0.739537 0.000000 
-0.099934 -0.759075 0.000000 
-0.000000 -0.765625 0.000000 
0.099934 -0.759075 0.000000 
0.198158 -0.739537 0.000000 
0.292992 -0.707345 0.000000 
0.382813 -0.663051 0.000000 
0.466083 -0.607411 0.000000 
0.541379 -0.541379 0.000000 
0.607411 -0.466083 0.000000 
0.663051 -0.382813 0.000000 
0.707345 -0.292992 0.000000 
0.739537 -0.198158 0.000000 
0.759075 -0.099934 0.000000 
0.731025 0.000000 0.000000 
0.724771 0.095418 0.000000 
0.706116 0.189203 0.000000 
0.675379 0.279751 0.000000 
0.633086 0.365512 0.000000 
[...]
CELL_DATA 4752
FIELD FieldData 1
AHA17 1 4752 short
17 2 7 1 1 17 4 3 11 17 1 5 17 4 17 10 2 1 1 2 14 2 17 13 17 8 14 17 17 17 3 2 3 2 15 3 14 9 15 10 17 15 17 5 17 3 15 4 10 11 5 4 5 5 16 8 5 1 6 6 13 13 11 13 1 16 1 6 1 5 7 6 2 1 2 2 2 2 2 3 2 15 2 1 8 14 1 2 1 1 1 1 7 7 1 7 1 1 7 1 14 17 14 13 13 13 14 14 13 14 14 14 14 14 14 14 8 7 14 7 2 2 8 2 2 2 8 3 2 3 3 8 14 14 9 8 9 9 3 9 9 8 3 3 3 3 3 4 3 10 4 4 10 4 9 10 14 17 15 9 15 15 17 15 17 17 14 14 17 17 17 14 17 17 17 17 17 14 17 17 17 17 17 14 17 17 17 17 17 17 16 16 16 17 17 16 17 16 15 15 10 10 4 4 4 3 16 10 15 15 16 16 11 5 10 5 11 12 4 4 4 5 5 11 5 4 5 5 10 10 5 11 16 12 11 10 11 10 6 5 5 11 12 12 6 6 16 16 16 12 12 16 12 12 17 13 17 17 17 17 17 17 16 16 16 13 16 16 12 12 7 12 7 12 1 12 7 1 7 1 1 6 1 1 6 1 12 6 6 6 6 5 6 6 6 1 6 6 2 2 2 2 2 2 2 2 2 2 2 2 2 2 2 2 2 2 2 2 2 2 2 2 2 2 2 2 2 2 8 8 8 8 2 8 8 2 2 2 2 2 2 2 2 2 2 1 1 2 2 1 1 1 1 1 1 1 2 2 1 1 1 1 1 1 1 1 1 1 1 1 1 1 1 1 7 1 1 1 1 1 7 1 7 7 7 7 7 8 13 8 7 8 7 7 8 8 7 7 8 7 8 8 8 2 8 8 8 8 13 13 14 14 14 14 17 17 13 17 14 7 13 7 13 13 13 13 13 13 17 17 17 17 17 17 17 17 17 17 17 17 17 17 17 17 17 17 17 17 17 17 17 17 17 17 17 17 14 14 14 17 14 14 17 17 14 14 9 9 14 14 8 8 8 9 14 8 14 14 14 8 14 14 14 8 8 9 8 14 8 8 8 8 8 8 8 8 8 8 2 2 2 2 2 2 2 2 8 3 8 9 8 8 2 9 2 2 2 2 2 3 2 2 3 2 3 3 3 3 3 3 3 3 3 3 9 9 9 9 9 14 9 9 14 9 9 3 9 9 9 3 9 9 9 9 10 3 9 9 9 3 9 9 3 3 3 3 3 3 3 3 3 3 3 3 3 3 3 3 3 3 3 3 3 3 3 3 3 3 3 3 3 3 3 4 3 3 4 3 3 4 3 3 4 4 4 4 4 4 4 4 4 4 4 4 4 4 4 4 3 3 4 3 3 3 4 3 4 3 10 3 14 9 14 14 14 14 9 15 15 15 9 9 15 14 10 4 4 4 4 4 4 4 4 4 10 9 10 10 15 15 10 10 10 4 10 4 4 10 10 15 10 10 15 15 15 14 15 10 15 15 15 15 15 15 15 15 15 17 17 17 15 15 14 14 15 15 14 14 17 17 14 14 14 14 14 14 14 14 14 14 14 14 14 14 17 17 17 17 17 17 14 14 17 17 17 17 17 17 17 17 17 17 17 17 17 17 17 17 17 17 17 17 17 17 17 17 17 17 17 17 17 17 17 17 17 17 17 17 17 17 17 17 17 17 16 16 16 16 17 17 17 17 16 16 16 11 16 16 16 16 16 16 15 16 16 16 15 15 15 17 15 17 17 17 17 17 15 15 15 15 15 15 15 15 15 15 15 15 15 15 15 15 15 15 15 15 4 4 4 4 10 10 10 10 10 15 10 10 11 10 4 4 10 10 4 10 4 10 11 10 11 11 11 11 15 16 11 10 16 16 16 15 16 16 16 11 4 11 5 10 5 11 4 4 5 5 4 4 4 4 4 4 4 4 4 4 4 4 4 4 4 5 4 5 4 5 4 4 5 5 5 5 5 5 5 5 5 5 5 5 5 5 5 5 5 5 5 5 5 5 5 5 5 5 5 5 5 5 5 5 5 5 5 5 5 10 10 11 5 11 11 11 11 11 11 5 11 11 11 11 11 11 11 11 11 16 16 11 11 11 11 11 11 11 11 11 11 5 5 5 11 6 5 5 6 5 12 6 5 6 12 12 11 12 12 6 12 12 6 6 5 6 6 12 12 12 6 12 12 12 12 12 12 12 12 12 12 13 12 12 12 13 16 12 12 12 12 12 12 12 12 16 16 12 12 16 16 16 16 17 17 17 17 16 17 17 17 17 17 17 17 17 17 17 17 17 17 17 17 17 17 17 17 17 17 17 17 17 17 17 17 17 17 13 17 13 13 13 17 13 16 7 16 16 16 16 16 13 16 16 16 7 7 13 16 6 12 6 12 6 12 7 12 12 6 12 12 12 12 12 7 7 12 12 7 7 7 7 12 7 12 12 7 1 1 7 7 1 1 1 1 1 1 1 1 1 6 1 6 1 1 1 6 6 6 6 6 1 1 6 1 1 1 6 1 6 6 6 6 6 6 1 6 1 6 6 6 6 6 6 6 6 6 6 6 6 6 6 6 6 6 6 6 6 6 6 6 6 6 6 6 6 6 6 6 6 6 6 6 6 6 6 6 6 6 2 2 2 2 2 2 2 2 2 2 2 2 2 2 2 2 2 2 2 2 2 2 2 2 2 2 2 2 2 2 2 2 2 2 2 2 2 2 2 2 2 2 2 2 2 2 2 2 2 2 2 2 2 2 2 2 2 2 2 2 2 2 2 2 2 2 2 2 2 2 2 2 2 2 2 2 2 2 2 2 2 2 2 2 2 2 2 2 2 2 2 2 2 2 2 2 2 2 2 2 2 2 2 2 2 2 2 2 2 2 2 2 2 2 2 2 2 2 2 2 2 2 2 2 2 2 2 8 2 8 2 2 2 2 2 2 2 8 8 8 8 8 8 2 8 2 8 8 8 8 2 2 2 8 2 2 2 2 2 2 8 8 2 2 1 1 1 1 1 2 1 2 2 2 1 2 2 2 2 2 2 2 2 2 2 2 2 2 1 2 1 2 1 2 1 2 1 2 1 2 1 1 1 1 1 1 1 1 1 1 1 1 1 1 1 1 1 1 1 1 1 1 1 1 1 1 1 1 1 1 1 1 1 2 7 2 1 8 1 1 1 1 1 1 1 1 1 1 1 1 1 1 7 1 7 7 1 1 1 1 1 1 1 1 1 1 1 1 1 1 1 1 1 1 1 1 1 1 1 1 1 1 1 1 1 1 1 1 1 1 1 1 1 1 1 1 1 1 1 1 1 1 1 1 1 1 7 1 7 7 7 7 7 7 7 1 1 1 1 1 1 1 1 1 1 1 1 1 7 7 7 7 7 7 7 7 7 7 7 7 7 7 7 7 7 7 7 7 7 7 7 7 7 7 7 7 7 7 7 7 7 7 7 7 7 7 7 7 7 7 7 7 7 7 7 7 7 8 7 7 8 7 7 7 7 8 8 8 8 8 8 8 7 7 7 8 7 7 7 7 7 7 7 7 7 7 7 7 8 7 7 7 8 8 7 8 7 8 8 8 8 8 8 8 8 8 8 8 8 8 8 8 8 8 8 8 8 8 8 8 8 8 13 13 13 13 13 13 13 13 13 13 13 13 13 13 13 14 14 14 14 14 13 14 14 14 13 13 13 13 14 13 14 14 14 17 14 13 17 14 14 13 13 13 13 13 13 13 13 13 13 13 13 13 13 13 13 13 13 13 13 13 13 13 13 13 17 13 13 13 13 13 13 13 13 13 13 13 13 13 13 13 13 13 13 13 13 17 13 17 17 17 17 17 17 17 17 17 17 17 17 17 13 13 13 13 17 14 13 13 14 14 17 17 17 17 17 17 17 17 17 17 17 17 17 17 17 17 17 17 17 17 17 17 17 17 17 17 17 17 17 17 17 17 17 17 17 17 17 17 17 17 17 17 17 17 17 17 17 17 17 17 17 17 17 17 17 17 17 17 17 17 17 17 17 17 17 17 17 17 17 17 17 17 17 17 17 17 17 17 17 17 17 17 17 17 17 17 17 17 17 17 17 17 14 14 14 14 14 14 17 17 14 17 17 17 17 17 17 17 17 17 14 14 14 17 14 14 14 14 14 14 14 14 14 14 14 14 14 14 14 14 14 14 14 14 14 8 14 14 14 14 14 14 14 14 14 14 14 14 14 8 14 14 14 14 14 14 14 13 14 14 14 14 14 14 14 13 13 14 13 13 14 13 13 13 13 13 13 13 13 13 13 13 13 13 13 13 13 13 13 13 13 7 7 7 13 13 13 13 8 8 8 8 7 7 8 8 8 8 8 8 8 8 8 8 8 8 13 14 14 14 13 13 14 14 14 14 8 8 8 8 8 8 8 8 8 8 8 8 8 8 8 8 8 8 8 8 8 8 8 8 8 8 8 8 2 2 2 2 8 8 2 2 2 2 2 2 2 2 2 2 2 2 2 2 8 8 2 2 2 2 2 2 2 2 2 2 2 2 2 2 8 8 8 8 8 8 8 8 8 8 8 8 8 8 8 8 8 8 8 8 8 8 8 8 8 8 14 8 8 8 8 8 8 8 8 8 8 8 8 8 2 2 2 2 8 8 8 8 2 2 2 3 3 3 2 2 3 3 2 3 2 3 3 3 3 2 3 3 3 3 3 3 3 3 3 3 3 3 3 3 3 3 3 9 3 9 9 3 9 9 9 9 3 2 9 9 3 2 3 2 8 8 9 9 8 9 9 9 9 9 9 9 9 9 8 9 8 8 9 8 8 8 9 9 9 14 9 14 9 9 9 9 9 9 9 9 9 14 9 9 9 9 9 9 9 9 9 9 9 9 9 9 9 9 9 9 9 9 9 9 9 9 9 9 9 9 9 9 9 9 9 9 9 9 9 9 9 9 9 9 9 9 9 9 9 9 9 9 9 9 9 9 9 9 9 9 9 9 9 9 9 9 9 9 9 9 9 9 3 9 9 9 3 3 9 9 3 3 3 3 3 3 3 3 3 3 3 3 3 3 3 9 3 3 3 3 3 3 3 3 3 3 3 3 3 3 3 3 3 3 3 3 3 3 3 3 3 3 3 3 3 3 3 3 3 3 3 3 3 3 3 3 3 3 3 3 3 3 3 3 3 3 3 3 3 3 3 3 3 3 3 3 3 3 3 3 3 3 3 3 3 3 3 3 3 3 3 3 3 3 3 3 3 3 3 3 3 3 3 3 3 3 3 3 3 3 3 3 3 3 3 3 3 3 3 3 3 3 3 3 3 3 3 3 3 3 3 3 3 4 3 3 3 3 4 3 4 3 3 3 4 3 4 3 3 3 3 3 3 3 3 3 3 3 3 3 3 3 4 4 3 3 4 3 3 4 4 3 4 3 4 4 4 4 4 4 4 4 4 4 4 4 4 4 4 4 4 4 4 4 4 4 4 4 4 4 4 4 4 4 4 4 4 4 4 4 4 4 4 3 4 4 4 4 4 4 4 10 4 3 10 3 4 4 4 4 3 3 3 3 4 4 3 3 3 3 3 3 3 3 3 3 3 3 3 3 3 3 3 3 3 9 9 9 9 9 9 9 3 9 3 9 9 10 10 9 9 9 10 9 9 9 9 9 9 9 9 9 9 14 9 14 14 14 14 14 14 14 14 14 9 14 14 14 9 9 15 9 9 9 9 9 15 9 10 10 10 10 9 9 10 10 9 9 9 9 9 9 9 9 9 9 9 9 9 9 9 10 10 10 10 10 10 10 4 4 10 10 10 10 4 4 4 4 4 4 4 4 4 4 4 4 4 10 10 4 4 4 4 4 4 4 4 4 4 4 4 10 10 10 10 10 10 10 10 10 10 10 10 10 10 10 10 15 15 15 15 10 10 10 15 10 10 10 10 4 4 4 4 4 4 10 10 10 10 10 10 10 10 10 10 10 10 10 10 10 10 10 10 10 10 10 10 10 15 10 10 10 10 10 10 15 15 15 15 15 15 15 15 15 15 15 15 15 15 15 15 15 15 15 15 15 15 15 15 15 15 15 14 15 15 15 15 15 15 15 14 14 15 15 15 14 14 14 15 15 14 15 15 15 15 15 15 15 15 15 15 15 15 15 15 15 15 15 15 15 14 15 15 15 15 15 15 17 15 15 15 17 17 17 17 17 17 17 17 17 17 17 15 17 15 15 14 17 15 17 17 14 14 17 15 15 14 15 15 15 14 15 15 15 15 15 15 15 15 15 15 15 15 15 15 15 14 15 15 14 14 14 14 14 14 14 14 14 14 9 9 14 9 14 14 14 14 14 14 14 14 14 14 9 9 14 14 9 9 14 14 14 14 14 14 14 14 14 14 14 14 14 14 14 14 14 14 14 14 17 17 17 17 17 17 17 17 17 17 14 17 17 17 14 14 14 14 14 14 14 14 14 14 14 14 14 17 14 14 14 14 14 14 14 14 14 14 14 14 14 14 17 17 14 14 17 17 17 17 17 17 17 17 17 17 17 17 17 17 17 17 17 17 17 17 17 17 17 17 17 17 17 17 17 17 17 17 17 17 17 17 17 17 17 17 17 17 17 17 17 17 17 17 17 17 17 17 17 17 17 17 17 17 17 17 17 17 17 17 17 17 17 17 17 17 17 17 17 17 17 17 17 17 17 17 17 17 17 17 17 17 17 17 17 17 17 17 17 17 17 17 17 17 17 17 17 17 17 17 17 17 17 17 17 17 17 17 17 17 17 17 17 17 17 17 17 17 17 17 17 17 17 17 17 17 17 17 17 17 17 17 17 17 17 17 16 16 16 16 17 16 16 16 17 17 17 17 16 16 16 16 16 16 16 16 16 16 17 17 16 16 17 17 17 17 17 17 17 17 17 17 17 17 17 17 16 16 16 16 15 16 16 16 16 16 16 16 16 16 16 16 16 16 16 16 16 16 16 16 16 15 16 16 16 16 16 16 16 16 16 16 16 11 16 16 16 16 16 15 16 15 16 16 16 15 16 16 15 15 16 15 15 15 15 15 15 15 15 15 15 17 15 15 16 15 16 16 16 15 16 16 16 17 16 16 17 15 17 16 15 15 17 17 17 17 17 17 17 17 17 17 17 17 15 17 15 17 15 15 15 15 15 15 15 15 15 15 15 15 15 15 15 15 15 15 15 15 15 15 15 15 15 15 15 15 15 15 15 15 15 15 15 15 15 15 15 15 15 15 15 15 10 10 10 10 10 15 15 10 10 10 15 15 10 15 15 15 15 15 15 10 10 10 10 10 10 10 10 10 10 10 10 10 10 10 10 10 10 10 4 4 4 4 4 4 4 4 4 4 4 4 4 4 4 4 4 4 4 4 4 4 4 4 4 10 10 10 10 10 10 10 10 10 10 10 10 10 10 10 10 10 10 10 10 4 4 10 10 10 10 4 10 4 4 4 4 4 4 4 4 4 4 4 4 4 4 4 4 4 4 4 4 4 4 4 4 4 4 4 4 10 11 10 10 4 4 10 10 10 10 10 10 11 11 11 10 11 11 11 11 11 10 11 11 10 10 10 11 10 10 10 10 10 10 10 10 15 15 10 10 15 15 15 16 15 15 15 15 15 16 15 15 16 15 16 16 15 16 15 16 15 16 15 15 11 16 11 11 11 16 16 11 10 10 10 10 10 10 10 11 11 5 10 11 11 11 11 11 11 5 5 5 5 5 5 5 5 5 5 5 5 5 5 5 5 5 5 5 5 4 5 4 5 5 4 5 5 4 4 5 4 4 4 4 4 4 4 4 4 4 4 4 4 4 4 5 4 4 4 4 4 4 4 4 4 4 4 4 4 4 4 4 4 4 4 4 4 4 4 4 4 4 4 4 4 4 4 4 5 4 4 4 4 4 5 4 5 5 4 5 4 5 5 5 5 5 5 5 5 5 5 5 5 4 4 5 4 5 4 4 4 4 5 4 5 4 4 5 5 5 5 5 5 5 5 5 5 5 5 5 5 5 5 5 5 5 5 5 5 5 5 5 5 5 5 5 5 5 5 5 5 5 5 5 5 5 5 5 5 5 5 5 5 5 5 5 5 5 5 5 5 5 5 5 5 5 5 5 5 5 5 5 5 5 5 5 5 5 5 5 5 5 5 5 5 5 5 5 5 5 5 5 5 5 5 5 5 5 5 5 5 5 5 5 5 5 5 5 5 5 5 5 5 5 5 5 5 5 5 5 5 5 5 11 11 5 5 5 5 5 5 5 11 5 5 5 5 5 5 5 5 5 5 5 5 11 5 11 11 11 11 11 11 11 11 11 11 11 11 11 11 10 11 11 11 11 11 11 11 11 11 11 11 11 11 11 11 11 11 11 11 11 11 11 11 11 11 11 11 11 11 11 11 11 11 11 11 11 11 11 11 11 11 11 11 11 11 11 11 11 11 11 11 11 11 11 11 11 11 11 11 11 11 11 11 11 11 11 11 11 11 11 11 11 11 16 16 11 11 11 11 11 11 12 11 11 11 11 11 11 11 11 11 11 11 11 11 11 11 11 12 5 11 5 5 5 5 11 11 11 11 11 11 11 11 11 5 5 5 5 5 11 11 5 5 5 6 5 5 5 5 5 5 5 5 5 5 5 5 5 5 5 5 5 5 5 5 5 6 5 6 5 6 5 5 6 5 6 6 5 6 5 5 5 5 12 5 6 6 5 12 11 11 12 11 16 11 12 11 12 12 11 12 12 12 16 12 12 12 12 12 12 12 12 12 12 12 12 12 12 12 12 11 11 5 6 12 12 6 6 6 6 12 12 6 6 6 6 6 6 6 6 6 6 6 6 6 6 6 6 12 6 6 6 12 12 6 6 12 12 12 12 12 12 12 12 12 12 12 12 12 12 12 12 12 12 12 12 12 12 12 12 12 12 12 12 16 12 16 16 16 16 16 16 16 16 16 12 16 16 16 12 12 12 12 12 13 7 13 12 16 13 16 16 13 13 13 13 13 13 13 13 13 13 13 13 13 13 13 13 13 16 13 16 13 13 16 16 13 13 16 16 16 16 16 16 16 16 16 16 16 16 16 16 16 16 16 16 16 16 16 16 16 16 16 16 16 16 16 16 16 16 16 16 16 16 16 16 16 16 16 16 16 16 16 16 16 16 16 16 16 16 16 16 16 16 16 16 16 16 17 17 17 16 17 17 17 17 17 16 16 16 16 16 16 16 16 16 17 17 16 16 17 17 17 17 17 17 17 17 17 17 17 17 17 17 17 17 17 17 17 17 17 17 17 17 17 17 17 17 17 17 17 17 17 17 17 17 17 17 17 17 17 17 17 17 17 17 17 17 17 17 17 17 17 17 17 17 17 17 17 17 17 17 17 17 17 17 17 17 17 17 17 17 17 17 17 17 17 17 17 17 17 17 17 17 17 17 17 17 17 17 13 13 13 13 13 13 17 13 17 17 17 17 17 17 17 17 17 13 13 17 13 13 13 13 13 13 13 13 13 13 13 13 13 13 13 13 13 13 13 13 13 13 13 13 13 13 13 13 13 13 13 13 13 13 13 13 13 13 13 13 13 13 13 13 13 13 13 13 13 16 13 13 13 16 16 16 16 16 13 13 16 13 13 16 16 16 16 16 16 16 16 16 13 16 13 16 13 13 13 13 13 13 13 13 13 13 13 13 13 13 13 13 12 12 12 12 12 12 12 12 12 12 12 12 12 12 12 12 12 12 12 12 12 12 12 12 12 12 12 12 12 12 12 7 12 12 7 7 7 7 7 7 7 7 12 12 12 12 12 12 12 12 12 12 12 12 12 12 13 13 12 13 12 13 13 13 7 7 7 13 7 13 13 13 13 13 13 13 13 13 13 13 7 13 7 13 7 7 7 7 7 7 7 7 7 7 7 7 7 7 7 7 7 7 7 7 7 7 7 7 7 7 7 7 7 7 7 7 7 1 7 7 7 7 7 7 7 7 7 7 7 7 7 7 7 7 1 7 1 7 1 1 1 1 1 1 1 1 1 1 1 1 1 1 1 1 1 1 1 1 1 1 1 1 1 1 1 1 1 1 1 1 1 1 1 1 1 1 1 1 1 1 1 1 1 1 7 7 12 7 7 7 7 7 1 6 1 1 7 12 12 12 6 12 12 6 1 1 1 1 1 1 1 6 1 1 1 1 1 1 1 1 1 1 1 1 1 1 1 1 1 1 1 1 6 1 1 1 1 6 1 1 1 1 1 1 6 6 6 6 1 6 1 1 6 6 6 6 6 6 6 6 6 6 6 6 6 6 6 6 6 1 6 1 1 1 6 6 6 6 6 6 6 12 6 6 6 6 6 6 6 12 12 12 12 6 12 12 12 12 12 12 12 12 12 12 12 12 12 12 6 6 12 12 6 6 6 6 6 6 6 6 6 6 6 6 6 6 6 6 6 6 6 6 6 6 6 6 6 6 6 6 6 6 6 6 6 6 6 6 6 6 6 6 6 6 6 6 6 6 6 6 6 6 6 6 6 6 6 6 6 6 6 6 6 6 6 6 6 6 6 6 6 6 6 6 6 6 6 6 6 6 6 6 6 6 6 6 6 6 6 6 6 6 6 6 6 6 6 6 6 6 6 6 6 6 6 6 6 6 6 6 6 6 6 6 6 6 6 6 6 6 6 6 6 6 6 6 6 6 6 6 6 6 6 6 6 