# vtk DataFile Version 3.0
vtk output
ASCII
DATASET POLYDATA
POINTS 2401 float
130.676823 -49.000136 79.701120 
150.177131 -69.651418 159.116781 
153.353698 -67.999259 158.735258 
156.110010 -65.912027 158.954001 
159.087480 -63.427053 158.967283 
161.922157 -60.579659 158.839573 
164.091805 -57.784367 158.798221 
165.657060 -55.245894 158.564734 
167.134660 -52.883218 157.558273 
167.638076 -49.248316 157.111542 
167.938269 -45.629581 156.244016 
168.553988 -42.913655 154.871159 
167.628057 -39.532539 154.574449 
166.661511 -36.347669 153.651823 
165.423329 -33.190027 152.132028 
162.707665 -30.552631 151.720069 
160.261307 -28.116001 150.369802 
156.204338 -26.309778 149.670385 
152.559309 -25.112550 148.792143 
149.525635 -24.250480 147.664947 
146.091543 -23.835104 147.522930 
142.786899 -23.802491 147.589121 
140.580546 -24.059756 148.199793 
138.439075 -24.475078 148.120906 
136.259944 -25.236574 148.127713 
133.959690 -26.321720 148.383443 
131.921270 -27.657861 148.559713 
129.975201 -29.149368 149.329274 
127.948763 -31.843843 149.227475 
125.442953 -36.315374 150.540337 
123.424785 -40.341822 152.455201 
123.384793 -44.501818 152.367991 
122.927079 -47.616167 154.058881 
123.245172 -51.385278 154.607349 
123.853385 -54.160917 153.472957 
124.510428 -57.482047 153.660811 
125.535017 -60.013362 154.379235 
126.885894 -62.307082 154.620243 
127.872865 -64.234681 154.193667 
129.118394 -66.025243 154.824238 
130.454681 -67.809860 155.008013 
132.066760 -69.410380 155.481356 
134.296476 -70.809366 156.206104 
136.165049 -71.852786 156.451853 
138.329417 -72.839417 156.435296 
140.979483 -73.207653 156.912368 
142.711177 -73.018733 157.402990 
144.401385 -72.375396 158.192143 
146.899929 -71.450339 158.616890 
150.082849 -70.334026 158.203494 
153.559703 -68.496449 157.911471 
156.410802 -66.421710 158.093474 
159.521886 -63.910845 158.092760 
162.578070 -61.181957 157.694087 
164.681039 -58.393617 157.703885 
166.499782 -55.925147 157.144228 
167.874288 -53.366760 156.394997 
168.440202 -49.750805 155.881321 
168.994932 -46.181527 154.836219 
169.271883 -43.109427 153.911216 
168.565690 -39.679537 153.480912 
167.339192 -36.310631 152.831767 
165.846966 -32.992831 151.305092 
163.306745 -30.113828 150.537083 
160.567829 -27.689926 149.347079 
156.675710 -25.918260 148.392147 
153.036613 -24.687122 147.245306 
149.946460 -23.992661 146.434853 
146.383199 -23.673447 146.442318 
142.970636 -23.722129 146.453157 
140.719167 -24.023435 146.844794 
138.431362 -24.538340 147.036678 
136.323621 -25.380063 146.758449 
133.997966 -26.541807 147.239727 
131.963418 -27.940189 147.483074 
130.084221 -29.585879 147.927128 
128.058493 -32.222646 148.266359 
125.769508 -36.450693 149.524970 
124.204023 -40.611729 151.022738 
123.752538 -44.476649 151.525874 
123.432450 -47.787624 152.672885 
123.576226 -51.109904 152.848878 
123.965740 -54.282239 152.662602 
124.574860 -57.702522 152.911909 
125.534743 -60.368209 153.513082 
126.770291 -62.572871 153.659510 
127.893308 -64.594753 153.626417 
129.124582 -66.476051 154.058783 
130.464597 -68.211673 154.375992 
132.109259 -69.723923 155.004829 
134.201293 -71.167965 155.494068 
136.134986 -72.253671 155.708192 
138.428486 -73.143514 155.922417 
140.962214 -73.520449 156.374370 
142.972930 -73.361513 156.876569 
144.837081 -72.805826 157.465828 
147.217420 -71.861563 157.843911 
150.313019 -70.849931 157.334382 
153.863062 -68.876697 157.182820 
156.860502 -66.833857 157.232851 
159.962874 -64.375684 157.220698 
162.971735 -61.701331 156.862601 
165.242014 -59.019619 156.623803 
167.073952 -56.523167 155.998524 
168.452202 -53.827704 155.326812 
169.184418 -50.291592 154.633464 
169.701647 -46.686789 153.673374 
169.852788 -43.378248 152.917060 
169.186804 -39.916697 152.539407 
167.931716 -36.421709 151.904114 
166.248714 -32.808344 150.518997 
163.831956 -29.817499 149.357744 
160.852021 -27.376991 148.208964 
157.087871 -25.606599 147.135366 
153.434375 -24.479008 146.155329 
150.136097 -23.844309 145.486328 
146.632474 -23.557117 145.379041 
143.279256 -23.664549 145.592553 
140.720688 -24.059861 145.916254 
138.436313 -24.639999 146.036384 
136.269187 -25.573494 145.916388 
134.023811 -26.779167 146.183769 
131.988828 -28.210287 146.557210 
130.112810 -29.999472 146.932594 
128.167543 -32.593092 147.325945 
126.089676 -36.583071 148.530505 
124.636334 -40.681953 149.922100 
124.011461 -44.456987 150.820771 
123.707918 -47.900361 151.627781 
123.733030 -51.275313 151.948380 
124.073495 -54.446596 151.880888 
124.631472 -57.822677 152.266535 
125.548507 -60.665503 152.706407 
126.735206 -62.967682 152.893839 
127.899109 -64.976897 153.042317 
129.118475 -66.899838 153.378124 
130.463638 -68.514246 153.895824 
132.140682 -70.038343 154.524489 
134.124386 -71.449203 154.964687 
136.218657 -72.572820 155.225128 
138.525597 -73.436320 155.412774 
140.946840 -73.810113 155.847554 
143.104035 -73.682539 156.355052 
145.224043 -73.172046 156.785112 
147.471352 -72.269673 157.096352 
150.839501 -71.176644 156.521783 
154.228734 -69.242939 156.360461 
157.262480 -67.204060 156.387441 
160.421461 -64.812490 156.306026 
163.404138 -62.215547 155.925594 
165.759862 -59.593423 155.498385 
167.609198 -57.051256 154.827438 
169.032778 -54.344277 154.119257 
169.808920 -50.833695 153.369017 
170.253786 -47.221045 152.557662 
170.299086 -43.679182 151.956935 
169.692416 -40.163307 151.530879 
168.401790 -36.470990 150.948428 
166.633855 -32.797584 149.527769 
164.187290 -29.583761 148.073228 
161.095102 -27.145888 146.956443 
157.434702 -25.392265 145.949731 
153.803606 -24.327261 144.991232 
150.403672 -23.733602 144.409241 
146.823748 -23.494171 144.381843 
143.521871 -23.655160 144.624033 
140.886595 -24.079376 144.884077 
138.448281 -24.795768 145.048418 
136.226690 -25.783263 145.077766 
134.037703 -27.039313 145.257705 
132.026641 -28.516385 145.594029 
130.169074 -30.355249 145.938393 
128.271331 -32.968993 146.421116 
126.347280 -36.777664 147.516466 
125.039079 -40.768754 148.856972 
124.298702 -44.502838 149.906224 
123.961619 -48.016574 150.633665 
123.933363 -51.340581 150.936929 
124.166642 -54.622494 151.140111 
124.686544 -57.921775 151.607100 
125.571360 -60.907088 151.974487 
126.695665 -63.298991 152.160147 
127.881908 -65.432950 152.391079 
129.126524 -67.333982 152.795927 
130.480128 -68.891676 153.385627 
132.130384 -70.378124 153.993413 
134.120371 -71.765373 154.424628 
136.303717 -72.870478 154.700953 
138.717415 -73.710441 154.888965 
141.078265 -74.070401 155.301860 
143.253635 -73.968995 155.808925 
145.595955 -73.490208 156.142246 
147.939803 -72.578409 156.355987 
151.323782 -71.431760 155.647653 
154.640158 -69.549644 155.529265 
157.754702 -67.512818 155.459742 
160.869043 -65.226890 155.334750 
163.798720 -62.732309 154.872390 
166.242521 -60.149853 154.370084 
168.082814 -57.566383 153.592650 
169.474399 -54.854858 152.804430 
170.288150 -51.384877 152.082519 
170.633958 -47.739143 151.433108 
170.597494 -44.159949 150.884276 
170.012434 -40.563251 150.418897 
168.829375 -36.786571 149.842775 
166.969493 -32.849539 148.385351 
164.464467 -29.561251 146.704352 
161.252119 -27.085069 145.576792 
157.650146 -25.315990 144.638741 
154.049922 -24.247464 143.818196 
150.524965 -23.675996 143.368446 
146.948430 -23.509556 143.359488 
143.677490 -23.705036 143.645370 
140.905380 -24.224024 143.889934 
138.453492 -24.964931 144.078938 
136.236734 -25.996418 144.142315 
134.054688 -27.288171 144.342275 
132.048851 -28.838601 144.656238 
130.174189 -30.748691 144.953194 
128.343418 -33.333998 145.443715 
126.595139 -36.973770 146.520593 
125.291693 -40.873939 147.783637 
124.560554 -44.594129 148.999968 
124.132710 -48.171162 149.767926 
124.061945 -51.517343 150.099874 
124.250868 -54.822053 150.423069 
124.740966 -58.093120 150.943613 
125.552035 -61.198828 151.301923 
126.628099 -63.667130 151.485841 
127.852061 -65.931183 151.772364 
129.120645 -67.776357 152.218529 
130.489000 -69.294693 152.855142 
132.158980 -70.714712 153.468872 
134.125088 -72.062570 153.892569 
136.422639 -73.171765 154.180015 
138.898885 -73.984568 154.364241 
141.247376 -74.317292 154.759079 
143.473676 -74.218655 155.268288 
145.895288 -73.744386 155.461264 
148.484788 -72.828659 155.571239 
151.807638 -71.637362 154.759416 
154.995907 -69.813836 154.619039 
158.134295 -67.844637 154.437773 
161.281629 -65.644977 154.240521 
164.176162 -63.242031 153.734352 
166.582120 -60.707839 153.082134 
168.465937 -58.079652 152.272638 
169.869365 -55.321826 151.491483 
170.634355 -51.961947 150.747131 
170.968297 -48.339948 150.279857 
170.822086 -44.614524 149.809173 
170.246941 -40.969120 149.241094 
169.027381 -37.174203 148.465607 
167.126058 -33.147163 146.965037 
164.461564 -29.722015 145.293754 
161.289341 -27.139335 144.159143 
157.789989 -25.345926 143.293226 
154.262096 -24.246843 142.600748 
150.679023 -23.693308 142.239852 
147.039593 -23.562483 142.303667 
143.718307 -23.827495 142.635839 
140.917482 -24.370590 142.917585 
138.426059 -25.206193 143.079527 
136.181317 -26.272879 143.252727 
134.032194 -27.596219 143.411730 
132.016260 -29.180851 143.665919 
130.185667 -31.122110 143.989308 
128.405393 -33.700608 144.488563 
126.755097 -37.183926 145.486894 
125.525831 -41.002139 146.744801 
124.758664 -44.725370 148.018008 
124.294984 -48.331915 148.911244 
124.174979 -51.776557 149.356641 
124.319643 -55.065424 149.734565 
124.772203 -58.270199 150.276780 
125.548920 -61.375695 150.643737 
126.571280 -64.079030 150.852437 
127.793978 -66.380999 151.168296 
129.085443 -68.257474 151.641413 
130.520093 -69.725695 152.306671 
132.193387 -71.110293 152.881114 
134.128340 -72.390157 153.330076 
136.544701 -73.476479 153.624446 
139.096201 -74.245130 153.813676 
141.431909 -74.554957 154.176337 
143.702527 -74.437004 154.625807 
146.182790 -73.987590 154.799246 
148.882391 -73.065337 154.774917 
152.171783 -71.822807 153.779248 
155.319915 -70.049933 153.648848 
[...]
CELL_DATA 4752
FIELD FieldData 1
AHA17 1 4752 short
17 2 7 1 1 17 4 3 11 17 1 5 17 4 17 10 2 1 1 2 14 2 17 13 17 8 14 17 17 17 3 2 3 2 15 3 14 9 15 10 17 15 17 5 17 3 15 4 10 11 5 4 5 5 16 8 5 1 6 6 13 13 11 13 1 16 1 6 1 5 7 6 2 1 2 2 2 2 2 3 2 15 2 1 8 14 1 2 1 1 1 1 7 7 1 7 1 1 7 1 14 17 14 13 13 13 14 14 13 14 14 14 14 14 14 14 8 7 14 7 2 2 8 2 2 2 8 3 2 3 3 8 14 14 9 8 9 9 3 9 9 8 3 3 3 3 3 4 3 10 4 4 10 4 9 10 14 17 15 9 15 15 17 15 17 17 14 14 17 17 17 14 17 17 17 17 17 14 17 17 17 17 17 14 17 17 17 17 17 17 16 16 16 17 17 16 17 16 15 15 10 10 4 4 4 3 16 10 15 15 16 16 11 5 10 5 11 12 4 4 4 5 5 11 5 4 5 5 10 10 5 11 16 12 11 10 11 10 6 5 5 11 12 12 6 6 16 16 16 12 12 16 12 12 17 13 17 17 17 17 17 17 16 16 16 13 16 16 12 12 7 12 7 12 1 12 7 1 7 1 1 6 1 1 6 1 12 6 6 6 6 5 6 6 6 1 6 6 2 2 2 2 2 2 2 2 2 2 2 2 2 2 2 2 2 2 2 2 2 2 2 2 2 2 2 2 2 2 8 8 8 8 2 8 8 2 2 2 2 2 2 2 2 2 2 1 1 2 2 1 1 1 1 1 1 1 2 2 1 1 1 1 1 1 1 1 1 1 1 1 1 1 1 1 7 1 1 1 1 1 7 1 7 7 7 7 7 8 13 8 7 8 7 7 8 8 7 7 8 7 8 8 8 2 8 8 8 8 13 13 14 14 14 14 17 17 13 17 14 7 13 7 13 13 13 13 13 13 17 17 17 17 17 17 17 17 17 17 17 17 17 17 17 17 17 17 17 17 17 17 17 17 17 17 17 17 14 14 14 17 14 14 17 17 14 14 9 9 14 14 8 8 8 9 14 8 14 14 14 8 14 14 14 8 8 9 8 14 8 8 8 8 8 8 8 8 8 8 2 2 2 2 2 2 2 2 8 3 8 9 8 8 2 9 2 2 2 2 2 3 2 2 3 2 3 3 3 3 3 3 3 3 3 3 9 9 9 9 9 14 9 9 14 9 9 3 9 9 9 3 9 9 9 9 10 3 9 9 9 3 9 9 3 3 3 3 3 3 3 3 3 3 3 3 3 3 3 3 3 3 3 3 3 3 3 3 3 3 3 3 3 3 3 4 3 3 4 3 3 4 3 3 4 4 4 4 4 4 4 4 4 4 4 4 4 4 4 4 3 3 4 3 3 3 4 3 4 3 10 3 14 9 14 14 14 14 9 15 15 15 9 9 15 14 10 4 4 4 4 4 4 4 4 4 10 9 10 10 15 15 10 10 10 4 10 4 4 10 10 15 10 10 15 15 15 14 15 10 15 15 15 15 15 15 15 15 15 17 17 17 15 15 14 14 15 15 14 14 17 17 14 14 14 14 14 14 14 14 14 14 14 14 14 14 17 17 17 17 17 17 14 14 17 17 17 17 17 17 17 17 17 17 17 17 17 17 17 17 17 17 17 17 17 17 17 17 17 17 17 17 17 17 17 17 17 17 17 17 17 17 17 17 17 17 16 16 16 16 17 17 17 17 16 16 16 11 16 16 16 16 16 16 15 16 16 16 15 15 15 17 15 17 17 17 17 17 15 15 15 15 15 15 15 15 15 15 15 15 15 15 15 15 15 15 15 15 4 4 4 4 10 10 10 10 10 15 10 10 11 10 4 4 10 10 4 10 4 10 11 10 11 11 11 11 15 16 11 10 16 16 16 15 16 16 16 11 4 11 5 10 5 11 4 4 5 5 4 4 4 4 4 4 4 4 4 4 4 4 4 4 4 5 4 5 4 5 4 4 5 5 5 5 5 5 5 5 5 5 5 5 5 5 5 5 5 5 5 5 5 5 5 5 5 5 5 5 5 5 5 5 5 5 5 5 5 10 10 11 5 11 11 11 11 11 11 5 11 11 11 11 11 11 11 11 11 16 16 11 11 11 11 11 11 11 11 11 11 5 5 5 11 6 5 5 6 5 12 6 5 6 12 12 11 12 12 6 12 12 6 6 5 6 6 12 12 12 6 12 12 12 12 12 12 12 12 12 12 13 12 12 12 13 16 12 12 12 12 12 12 12 12 16 16 12 12 16 16 16 16 17 17 17 17 16 17 17 17 17 17 17 17 17 17 17 17 17 17 17 17 17 17 17 17 17 17 17 17 17 17 17 17 17 17 13 17 13 13 13 17 13 16 7 16 16 16 16 16 13 16 16 16 7 7 13 16 6 12 6 12 6 12 7 12 12 6 12 12 12 12 12 7 7 12 12 7 7 7 7 12 7 12 12 7 1 1 7 7 1 1 1 1 1 1 1 1 1 6 1 6 1 1 1 6 6 6 6 6 1 1 6 1 1 1 6 1 6 6 6 6 6 6 1 6 1 6 6 6 6 6 6 6 6 6 6 6 6 6 6 6 6 6 6 6 6 6 6 6 6 6 6 6 6 6 6 6 6 6 6 6 6 6 6 6 6 6 2 2 2 2 2 2 2 2 2 2 2 2 2 2 2 2 2 2 2 2 2 2 2 2 2 2 2 2 2 2 2 2 2 2 2 2 2 2 2 2 2 2 2 2 2 2 2 2 2 2 2 2 2 2 2 2 2 2 2 2 2 2 2 2 2 2 2 2 2 2 2 2 2 2 2 2 2 2 2 2 2 2 2 2 2 2 2 2 2 2 2 2 2 2 2 2 2 2 2 2 2 2 2 2 2 2 2 2 2 2 2 2 2 2 2 2 2 2 2 2 2 2 2 2 2 2 2 8 2 8 2 2 2 2 2 2 2 8 8 8 8 8 8 2 8 2 8 8 8 8 2 2 2 8 2 2 2 2 2 2 8 8 2 2 1 1 1 1 1 2 1 2 2 2 1 2 2 2 2 2 2 2 2 2 2 2 2 2 1 2 1 2 1 2 1 2 1 2 1 2 1 1 1 1 1 1 1 1 1 1 1 1 1 1 1 1 1 1 1 1 1 1 1 1 1 1 1 1 1 1 1 1 1 2 7 2 1 8 1 1 1 1 1 1 1 1 1 1 1 1 1 1 7 1 7 7 1 1 1 1 1 1 1 1 1 1 1 1 1 1 1 1 1 1 1 1 1 1 1 1 1 1 1 1 1 1 1 1 1 1 1 1 1 1 1 1 1 1 1 1 1 1 1 1 1 1 7 1 7 7 7 7 7 7 7 1 1 1 1 1 1 1 1 1 1 1 1 1 7 7 7 7 7 7 7 7 7 7 7 7 7 7 7 7 7 7 7 7 7 7 7 7 7 7 7 7 7 7 7 7 7 7 7 7 7 7 7 7 7 7 7 7 7 7 7 7 7 8 7 7 8 7 7 7 7 8 8 8 8 8 8 8 7 7 7 8 7 7 7 7 7 7 7 7 7 7 7 7 8 7 7 7 8 8 7 8 7 8 8 8 8 8 8 8 8 8 8 8 8 8 8 8 8 8 8 8 8 8 8 8 8 8 13 13 13 13 13 13 13 13 13 13 13 13 13 13 13 14 14 14 14 14 13 14 14 14 13 13 13 13 14 13 14 14 14 17 14 13 17 14 14 13 13 13 13 13 13 13 13 13 13 13 13 13 13 13 13 13 13 13 13 13 13 13 13 13 17 13 13 13 13 13 13 13 13 13 13 13 13 13 13 13 13 13 13 13 13 17 13 17 17 17 17 17 17 17 17 17 17 17 17 17 13 13 13 13 17 14 13 13 14 14 17 17 17 17 17 17 17 17 17 17 17 17 17 17 17 17 17 17 17 17 17 17 17 17 17 17 17 17 17 17 17 17 17 17 17 17 17 17 17 17 17 17 17 17 17 17 17 17 17 17 17 17 17 17 17 17 17 17 17 17 17 17 17 17 17 17 17 17 17 17 17 17 17 17 17 17 17 17 17 17 17 17 17 17 17 17 17 17 17 17 17 17 14 14 14 14 14 14 17 17 14 17 17 17 17 17 17 17 17 17 14 14 14 17 14 14 14 14 14 14 14 14 14 14 14 14 14 14 14 14 14 14 14 14 14 8 14 14 14 14 14 14 14 14 14 14 14 14 14 8 14 14 14 14 14 14 14 13 14 14 14 14 14 14 14 13 13 14 13 13 14 13 13 13 13 13 13 13 13 13 13 13 13 13 13 13 13 13 13 13 13 7 7 7 13 13 13 13 8 8 8 8 7 7 8 8 8 8 8 8 8 8 8 8 8 8 13 14 14 14 13 13 14 14 14 14 8 8 8 8 8 8 8 8 8 8 8 8 8 8 8 8 8 8 8 8 8 8 8 8 8 8 8 8 2 2 2 2 8 8 2 2 2 2 2 2 2 2 2 2 2 2 2 2 8 8 2 2 2 2 2 2 2 2 2 2 2 2 2 2 8 8 8 8 8 8 8 8 8 8 8 8 8 8 8 8 8 8 8 8 8 8 8 8 8 8 14 8 8 8 8 8 8 8 8 8 8 8 8 8 2 2 2 2 8 8 8 8 2 2 2 3 3 3 2 2 3 3 2 3 2 3 3 3 3 2 3 3 3 3 3 3 3 3 3 3 3 3 3 3 3 3 3 9 3 9 9 3 9 9 9 9 3 2 9 9 3 2 3 2 8 8 9 9 8 9 9 9 9 9 9 9 9 9 8 9 8 8 9 8 8 8 9 9 9 14 9 14 9 9 9 9 9 9 9 9 9 14 9 9 9 9 9 9 9 9 9 9 9 9 9 9 9 9 9 9 9 9 9 9 9 9 9 9 9 9 9 9 9 9 9 9 9 9 9 9 9 9 9 9 9 9 9 9 9 9 9 9 9 9 9 9 9 9 9 9 9 9 9 9 9 9 9 9 9 9 9 9 3 9 9 9 3 3 9 9 3 3 3 3 3 3 3 3 3 3 3 3 3 3 3 9 3 3 3 3 3 3 3 3 3 3 3 3 3 3 3 3 3 3 3 3 3 3 3 3 3 3 3 3 3 3 3 3 3 3 3 3 3 3 3 3 3 3 3 3 3 3 3 3 3 3 3 3 3 3 3 3 3 3 3 3 3 3 3 3 3 3 3 3 3 3 3 3 3 3 3 3 3 3 3 3 3 3 3 3 3 3 3 3 3 3 3 3 3 3 3 3 3 3 3 3 3 3 3 3 3 3 3 3 3 3 3 3 3 3 3 3 3 4 3 3 3 3 4 3 4 3 3 3 4 3 4 3 3 3 3 3 3 3 3 3 3 3 3 3 3 3 4 4 3 3 4 3 3 4 4 3 4 3 4 4 4 4 4 4 4 4 4 4 4 4 4 4 4 4 4 4 4 4 4 4 4 4 4 4 4 4 4 4 4 4 4 4 4 4 4 4 4 3 4 4 4 4 4 4 4 10 4 3 10 3 4 4 4 4 3 3 3 3 4 4 3 3 3 3 3 3 3 3 3 3 3 3 3 3 3 3 3 3 3 9 9 9 9 9 9 9 3 9 3 9 9 10 10 9 9 9 10 9 9 9 9 9 9 9 9 9 9 14 9 14 14 14 14 14 14 14 14 14 9 14 14 14 9 9 15 9 9 9 9 9 15 9 10 10 10 10 9 9 10 10 9 9 9 9 9 9 9 9 9 9 9 9 9 9 9 10 10 10 10 10 10 10 4 4 10 10 10 10 4 4 4 4 4 4 4 4 4 4 4 4 4 10 10 4 4 4 4 4 4 4 4 4 4 4 4 10 10 10 10 10 10 10 10 10 10 10 10 10 10 10 10 15 15 15 15 10 10 10 15 10 10 10 10 4 4 4 4 4 4 10 10 10 10 10 10 10 10 10 10 10 10 10 10 10 10 10 10 10 10 10 10 10 15 10 10 10 10 10 10 15 15 15 15 15 15 15 15 15 15 15 15 15 15 15 15 15 15 15 15 15 15 15 15 15 15 15 14 15 15 15 15 15 15 15 14 14 15 15 15 14 14 14 15 15 14 15 15 15 15 15 15 15 15 15 15 15 15 15 15 15 15 15 15 15 14 15 15 15 15 15 15 17 15 15 15 17 17 17 17 17 17 17 17 17 17 17 15 17 15 15 14 17 15 17 17 14 14 17 15 15 14 15 15 15 14 15 15 15 15 15 15 15 15 15 15 15 15 15 15 15 14 15 15 14 14 14 14 14 14 14 14 14 14 9 9 14 9 14 14 14 14 14 14 14 14 14 14 9 9 14 14 9 9 14 14 14 14 14 14 14 14 14 14 14 14 14 14 14 14 14 14 14 14 17 17 17 17 17 17 17 17 17 17 14 17 17 17 14 14 14 14 14 14 14 14 14 14 14 14 14 17 14 14 14 14 14 14 14 14 14 14 14 14 14 14 17 17 14 14 17 17 17 17 17 17 17 17 17 17 17 17 17 17 17 17 17 17 17 17 17 17 17 17 17 17 17 17 17 17 17 17 17 17 17 17 17 17 17 17 17 17 17 17 17 17 17 17 17 17 17 17 17 17 17 17 17 17 17 17 17 17 17 17 17 17 17 17 17 17 17 17 17 17 17 17 17 17 17 17 17 17 17 17 17 17 17 17 17 17 17 17 17 17 17 17 17 17 17 17 17 17 17 17 17 17 17 17 17 17 17 17 17 17 17 17 17 17 17 17 17 17 17 17 17 17 17 17 17 17 17 17 17 17 17 17 17 17 17 17 16 16 16 16 17 16 16 16 17 17 17 17 16 16 16 16 16 16 16 16 16 16 17 17 16 16 17 17 17 17 17 17 17 17 17 17 17 17 17 17 16 16 16 16 15 16 16 16 16 16 16 16 16 16 16 16 16 16 16 16 16 16 16 16 16 15 16 16 16 16 16 16 16 16 16 16 16 11 16 16 16 16 16 15 16 15 16 16 16 15 16 16 15 15 16 15 15 15 15 15 15 15 15 15 15 17 15 15 16 15 16 16 16 15 16 16 16 17 16 16 17 15 17 16 15 15 17 17 17 17 17 17 17 17 17 17 17 17 15 17 15 17 15 15 15 15 15 15 15 15 15 15 15 15 15 15 15 15 15 15 15 15 15 15 15 15 15 15 15 15 15 15 15 15 15 15 15 15 15 15 15 15 15 15 15 15 10 10 10 10 10 15 15 10 10 10 15 15 10 15 15 15 15 15 15 10 10 10 10 10 10 10 10 10 10 10 10 10 10 10 10 10 10 10 4 4 4 4 4 4 4 4 4 4 4 4 4 4 4 4 4 4 4 4 4 4 4 4 4 10 10 10 10 10 10 10 10 10 10 10 10 10 10 10 10 10 10 10 10 4 4 10 10 10 10 4 10 4 4 4 4 4 4 4 4 4 4 4 4 4 4 4 4 4 4 4 4 4 4 4 4 4 4 4 4 10 11 10 10 4 4 10 10 10 10 10 10 11 11 11 10 11 11 11 11 11 10 11 11 10 10 10 11 10 10 10 10 10 10 10 10 15 15 10 10 15 15 15 16 15 15 15 15 15 16 15 15 16 15 16 16 15 16 15 16 15 16 15 15 11 16 11 11 11 16 16 11 10 10 10 10 10 10 10 11 11 5 10 11 11 11 11 11 11 5 5 5 5 5 5 5 5 5 5 5 5 5 5 5 5 5 5 5 5 4 5 4 5 5 4 5 5 4 4 5 4 4 4 4 4 4 4 4 4 4 4 4 4 4 4 5 4 4 4 4 4 4 4 4 4 4 4 4 4 4 4 4 4 4 4 4 4 4 4 4 4 4 4 4 4 4 4 4 5 4 4 4 4 4 5 4 5 5 4 5 4 5 5 5 5 5 5 5 5 5 5 5 5 4 4 5 4 5 4 4 4 4 5 4 5 4 4 5 5 5 5 5 5 5 5 5 5 5 5 5 5 5 5 5 5 5 5 5 5 5 5 5 5 5 5 5 5 5 5 5 5 5 5 5 5 5 5 5 5 5 5 5 5 5 5 5 5 5 5 5 5 5 5 5 5 5 5 5 5 5 5 5 5 5 5 5 5 5 5 5 5 5 5 5 5 5 5 5 5 5 5 5 5 5 5 5 5 5 5 5 5 5 5 5 5 5 5 5 5 5 5 5 5 5 5 5 5 5 5 5 5 5 5 11 11 5 5 5 5 5 5 5 11 5 5 5 5 5 5 5 5 5 5 5 5 11 5 11 11 11 11 11 11 11 11 11 11 11 11 11 11 10 11 11 11 11 11 11 11 11 11 11 11 11 11 11 11 11 11 11 11 11 11 11 11 11 11 11 11 11 11 11 11 11 11 11 11 11 11 11 11 11 11 11 11 11 11 11 11 11 11 11 11 11 11 11 11 11 11 11 11 11 11 11 11 11 11 11 11 11 11 11 11 11 11 16 16 11 11 11 11 11 11 12 11 11 11 11 11 11 11 11 11 11 11 11 11 11 11 11 12 5 11 5 5 5 5 11 11 11 11 11 11 11 11 11 5 5 5 5 5 11 11 5 5 5 6 5 5 5 5 5 5 5 5 5 5 5 5 5 5 5 5 5 5 5 5 5 6 5 6 5 6 5 5 6 5 6 6 5 6 5 5 5 5 12 5 6 6 5 12 11 11 12 11 16 11 12 11 12 12 11 12 12 12 16 12 12 12 12 12 12 12 12 12 12 12 12 12 12 12 12 11 11 5 6 12 12 6 6 6 6 12 12 6 6 6 6 6 6 6 6 6 6 6 6 6 6 6 6 12 6 6 6 12 12 6 6 12 12 12 12 12 12 12 12 12 12 12 12 12 12 12 12 12 12 12 12 12 12 12 12 12 12 12 12 16 12 16 16 16 16 16 16 16 16 16 12 16 16 16 12 12 12 12 12 13 7 13 12 16 13 16 16 13 13 13 13 13 13 13 13 13 13 13 13 13 13 13 13 13 16 13 16 13 13 16 16 13 13 16 16 16 16 16 16 16 16 16 16 16 16 16 16 16 16 16 16 16 16 16 16 16 16 16 16 16 16 16 16 16 16 16 16 16 16 16 16 16 16 16 16 16 16 16 16 16 16 16 16 16 16 16 16 16 16 16 16 16 16 17 17 17 16 17 17 17 17 17 16 16 16 16 16 16 16 16 16 17 17 16 16 17 17 17 17 17 17 17 17 17 17 17 17 17 17 17 17 17 17 17 17 17 17 17 17 17 17 17 17 17 17 17 17 17 17 17 17 17 17 17 17 17 17 17 17 17 17 17 17 17 17 17 17 17 17 17 17 17 17 17 17 17 17 17 17 17 17 17 17 17 17 17 17 17 17 17 17 17 17 17 17 17 17 17 17 17 17 17 17 17 17 13 13 13 13 13 13 17 13 17 17 17 17 17 17 17 17 17 13 13 17 13 13 13 13 13 13 13 13 13 13 13 13 13 13 13 13 13 13 13 13 13 13 13 13 13 13 13 13 13 13 13 13 13 13 13 13 13 13 13 13 13 13 13 13 13 13 13 13 13 16 13 13 13 16 16 16 16 16 13 13 16 13 13 16 16 16 16 16 16 16 16 16 13 16 13 16 13 13 13 13 13 13 13 13 13 13 13 13 13 13 13 13 12 12 12 12 12 12 12 12 12 12 12 12 12 12 12 12 12 12 12 12 12 12 12 12 12 12 12 12 12 12 12 7 12 12 7 7 7 7 7 7 7 7 12 12 12 12 12 12 12 12 12 12 12 12 12 12 13 13 12 13 12 13 13 13 7 7 7 13 7 13 13 13 13 13 13 13 13 13 13 13 7 13 7 13 7 7 7 7 7 7 7 7 7 7 7 7 7 7 7 7 7 7 7 7 7 7 7 7 7 7 7 7 7 7 7 7 7 1 7 7 7 7 7 7 7 7 7 7 7 7 7 7 7 7 1 7 1 7 1 1 1 1 1 1 1 1 1 1 1 1 1 1 1 1 1 1 1 1 1 1 1 1 1 1 1 1 1 1 1 1 1 1 1 1 1 1 1 1 1 1 1 1 1 1 7 7 12 7 7 7 7 7 1 6 1 1 7 12 12 12 6 12 12 6 1 1 1 1 1 1 1 6 1 1 1 1 1 1 1 1 1 1 1 1 1 1 1 1 1 1 1 1 6 1 1 1 1 6 1 1 1 1 1 1 6 6 6 6 1 6 1 1 6 6 6 6 6 6 6 6 6 6 6 6 6 6 6 6 6 1 6 1 1 1 6 6 6 6 6 6 6 12 6 6 6 6 6 6 6 12 12 12 12 6 12 12 12 12 12 12 12 12 12 12 12 12 12 12 6 6 12 12 6 6 6 6 6 6 6 6 6 6 6 6 6 6 6 6 6 6 6 6 6 6 6 6 6 6 6 6 6 6 6 6 6 6 6 6 6 6 6 6 6 6 6 6 6 6 6 6 6 6 6 6 6 6 6 6 6 6 6 6 6 6 6 6 6 6 6 6 6 6 6 6 6 6 6 6 6 6 6 6 6 6 6 6 6 6 6 6 6 6 6 6 6 6 6 6 6 6 6 6 6 6 6 6 6 6 6 6 6 6 6 6 6 6 6 6 6 6 6 6 6 6 6 6 6 6 6 6 6 6 6 6 6 