# vtk DataFile Version 4.2
vtk output
ASCII
DATASET POLYDATA
POINTS 14 float
0.705935 -2.40558 14.7141 1.05588 -2.47326 14.5736 0.807277 -2.26371 14.6201 
0.915883 -2.75363 14.7117 1.20433 -2.75248 14.5811 1.24702 -2.22904 14.4183 
1.15722 -2.03617 14.3855 1.1221 -2.18106 14.4551 1.15203 -2.35042 14.4955 
1.30193 -2.35641 14.4292 0.921379 -2.10397 14.5143 1.02703 -1.94545 14.3906 
1.21473 -2.51115 14.5122 0.996843 -2.31117 14.5476 
METADATA
INFORMATION 1
NAME L2_NORM_RANGE LOCATION vtkDataArray
DATA 2 14.5577 14.9952 

POLYGONS 16 64
3 0 1 2 
3 0 3 1 
3 3 4 1 
3 5 6 7 
3 5 7 8 
3 5 8 9 
3 6 10 7 
3 6 11 10 
3 4 12 1 
3 1 12 8 
3 1 13 2 
3 1 8 13 
3 10 13 7 
3 10 2 13 
3 7 13 8 
3 8 12 9 

CELL_DATA 16
FIELD FieldData 2
regionid 1 16 short
1 1 1 1 1 1 1 1 1 
1 1 1 1 1 1 1 
METADATA
INFORMATION 0

vtkOriginalCellIds 1 16 vtkIdType
20902 20905 20911 21575 21578 21579 28560 28561 28577 
29155 29156 29157 29690 29691 53267 53787 
POINT_DATA 14
FIELD FieldData 1
vtkOriginalPointIds 1 14 vtkIdType
12567 12971 12972 12566 12976 13356 13358 13359 13362 
13361 16968 16965 16970 17283 
